 Gaussian 09, Revision D.01,
 Gaussian 09:  EM64L-G09RevD.01 24-Apr-2013

 ----------------------------------------------------------------------
 # TD(Nstate=25,Root=1) B3LYP/6-31+G(d,p) SCF=(Maxcyc=500) Int=Ultrafin
 e geom=check guess=read EmpiricalDispersion=GD3 iop(9/40=2) SCRF=(Solv
 ent=Toluene) Density=(all)
 ----------------------------------------------------------------------

 -----------------
 ****TD b3lyp, GD3
 -----------------
 Structure from the checkpoint file:  "1--PXZ-BZN-PXB--b3lyp-td-PCM.chk"
 Charge =  0 Multiplicity = 1

                         Standard orientation:
 ---------------------------------------------------------------------
 Center     Atomic      Atomic             Coordinates (Angstroms)
 Number     Number       Type             X           Y           Z
 ---------------------------------------------------------------------
      1          6           0       -3.449317    1.170311    3.779730
      2          6           0       -2.331319    0.790561    3.034037
      3          6           0       -1.149816    0.391591    3.665117
      4          6           0       -1.123671    0.383142    5.070814
      5          6           0       -2.231943    0.759424    5.810676
      6          6           0       -3.406180    1.157235    5.167444
      7          6           0        1.123671   -0.383142    5.070814
      8          6           0        1.149816   -0.391591    3.665117
      9          6           0        2.331319   -0.790561    3.034037
     10          1           0        2.373953   -0.804129    1.953228
     11          6           0        3.449317   -1.170311    3.779730
     12          6           0        3.406180   -1.157235    5.167444
     13          6           0        2.231943   -0.759424    5.810676
     14          1           0       -4.350877    1.475201    3.261491
     15          1           0       -2.373953    0.804129    1.953228
     16          1           0       -2.156757    0.734219    6.891172
     17          1           0       -4.269239    1.450405    5.752569
     18          1           0        4.350877   -1.475201    3.261491
     19          1           0        4.269239   -1.450405    5.752569
     20          1           0        2.156757   -0.734219    6.891172
     21          8           0        0.000000    0.000000    5.777561
     22          7           0        0.000000    0.000000    2.955170
     23          6           0        0.000000    0.000000    1.520849
     24          6           0       -0.343731   -1.155659    0.819830
     25          6           0        0.343731    1.155659    0.819830
     26          6           0       -0.352159   -1.147479   -0.572710
     27          1           0       -0.607486   -2.051995    1.369542
     28          6           0        0.352159    1.147479   -0.572710
     29          1           0        0.607486    2.051995    1.369542
     30          6           0        0.000000    0.000000   -1.306825
     31          1           0       -0.626921   -2.056777   -1.096837
     32          1           0        0.626921    2.056777   -1.096837
     33          5           0        0.000000    0.000000   -2.879932
     34          6           0       -1.239809   -0.378141   -3.712194
     35          6           0        1.239809    0.378141   -3.712194
     36          6           0       -2.502050   -0.730290   -3.175951
     37          6           0       -1.144701   -0.347746   -5.117205
     38          6           0        1.144701    0.347746   -5.117205
     39          6           0        2.502050    0.730290   -3.175951
     40          6           0       -3.579424   -1.047586   -3.982328
     41          1           0       -2.619661   -0.742504   -2.098717
     42          6           0       -2.224057   -0.666414   -5.949962
     43          8           0        0.000000    0.000000   -5.775158
     44          6           0        2.224057    0.666414   -5.949962
     45          1           0        2.619661    0.742504   -2.098717
     46          6           0        3.579424    1.047586   -3.982328
     47          6           0       -3.433770   -1.017708   -5.377942
     48          1           0       -4.533828   -1.313322   -3.543243
     49          1           0       -2.090195   -0.628289   -7.023989
     50          6           0        3.433770    1.017708   -5.377942
     51          1           0        2.090195    0.628289   -7.023989
     52          1           0        4.533828    1.313322   -3.543243
     53          1           0       -4.274531   -1.264920   -6.016284
     54          1           0        4.274531    1.264920   -6.016284
 ---------------------------------------------------------------------

 SCF Done:  E(RB3LYP) =  -1385.46140864     A.U. after   13 cycles

 Excitation energies and oscillator strengths:

 Excited State   1:      Singlet-A      2.4306 eV  510.11 nm  f=0.0029  <S**2>=0.000
     112 ->115        -0.01602
     114 ->115         0.70230
     114 ->117        -0.07543
     114 ->123        -0.01912
 This state for optimization and/or second-order correction.
 Total Energy, E(TD-HF/TD-KS) =  -1385.37208739
 Copying the excited state density for this state as the 1-particle RhoCI density.

 Excited State   2:      Singlet-B      3.4115 eV  363.44 nm  f=0.0004  <S**2>=0.000
     103 ->116         0.02073
     103 ->118        -0.01312
     103 ->119        -0.01086
     108 ->132         0.01188
     112 ->116        -0.01826
     112 ->119         0.01517
     112 ->122        -0.02447
     114 ->116         0.62587
     114 ->118        -0.29538
     114 ->119        -0.12347
     114 ->120         0.03618
     114 ->122        -0.03568
     114 ->169         0.01642

 Excited State   3:      Singlet-A      3.4695 eV  357.35 nm  f=0.0006  <S**2>=0.000
     103 ->117         0.02308
     112 ->115         0.03356
     112 ->117        -0.03797
     112 ->123        -0.01001
     114 ->115         0.07932
     114 ->117         0.69183
     114 ->123         0.09660
     114 ->125         0.01338
     114 ->135         0.01299
     114 ->141         0.02004
     114 ->142        -0.01463
     114 ->164        -0.01291
     114 ->168         0.01086

 Excited State   4:      Singlet-B      3.6645 eV  338.34 nm  f=0.0974  <S**2>=0.000
     102 ->119         0.01017
     103 ->119         0.02775
     112 ->116        -0.05973
     112 ->118         0.03711
     112 ->119         0.02384
     112 ->122         0.02518
     114 ->116         0.19552
     114 ->118         0.15685
     114 ->119         0.63616
     114 ->120         0.13488
     114 ->122         0.06677
     114 ->124         0.03000
     114 ->169        -0.01976
     114 <-119        -0.01744

 Excited State   5:      Singlet-A      3.6869 eV  336.29 nm  f=0.1721  <S**2>=0.000
      91 ->118        -0.01345
      99 ->123         0.01162
     105 ->115        -0.01815
     105 ->117         0.02253
     105 ->123        -0.04328
     109 ->116         0.05082
     109 ->118         0.06474
     109 ->120        -0.03291
     110 ->115         0.02571
     110 ->123        -0.02137
     111 ->116        -0.01954
     111 ->118        -0.03581
     111 ->120         0.01865
     112 ->115         0.03504
     113 ->115         0.69538
     114 ->121        -0.02261
     105 <-123        -0.01499
     106 <-120        -0.01031
     109 <-116         0.01187
     109 <-118         0.01670
     113 <-115        -0.02490

 Excited State   6:      Singlet-B      3.9018 eV  317.76 nm  f=0.0208  <S**2>=0.000
     112 ->116         0.02276
     112 ->118        -0.02869
     112 ->119        -0.03077
     114 ->116         0.25658
     114 ->118         0.60873
     114 ->119        -0.21495
     114 ->120        -0.08395
     114 ->122         0.08756

 Excited State   7:      Singlet-A      3.9364 eV  314.97 nm  f=0.0001  <S**2>=0.000
     103 ->115        -0.01167
     110 ->115        -0.01037
     112 ->115         0.70307
     112 ->117        -0.04635
     112 ->123        -0.01167
     113 ->115        -0.03533
     114 ->115         0.01286
     114 ->117        -0.03915

 Excited State   8:      Singlet-A      4.0494 eV  306.18 nm  f=0.0063  <S**2>=0.000
      93 ->122        -0.01156
     106 ->116        -0.01352
     106 ->118         0.01300
     106 ->119         0.02042
     107 ->116         0.02814
     107 ->118        -0.02375
     107 ->119        -0.04075
     108 ->116         0.03099
     108 ->118        -0.02603
     108 ->119        -0.04148
     108 ->122        -0.01457
     109 ->116         0.02272
     109 ->118        -0.01167
     109 ->119        -0.03449
     110 ->115        -0.07768
     110 ->117         0.01890
     111 ->116         0.03001
     111 ->118        -0.03356
     111 ->119        -0.06108
     111 ->122        -0.01061
     112 ->132        -0.07839
     112 ->133        -0.01244
     113 ->115         0.02312
     114 ->121         0.68571
     114 ->125        -0.01032
     114 ->132         0.01249
     108 <-122        -0.01193
     111 <-119        -0.01244
     112 <-132        -0.01837
     114 <-121        -0.02329

 Excited State   9:      Singlet-B      4.0656 eV  304.96 nm  f=0.1386  <S**2>=0.000
     107 ->132        -0.01469
     108 ->121         0.01446
     108 ->132        -0.01896
     109 ->132        -0.01110
     111 ->132        -0.01999
     112 ->116         0.05837
     112 ->118        -0.05371
     112 ->119        -0.12028
     112 ->120        -0.01739
     112 ->122        -0.01382
     114 ->118        -0.12830
     114 ->119         0.03922
     114 ->120        -0.29795
     114 ->122         0.59795
     114 ->124         0.10670
     114 ->126        -0.01468
     114 ->129         0.01034
     114 ->131        -0.01432
     112 <-119        -0.01396
     114 <-122        -0.01214

 Excited State  10:      Singlet-B      4.1974 eV  295.38 nm  f=0.0088  <S**2>=0.000
     112 ->116         0.01265
     112 ->118        -0.01404
     112 ->119        -0.03466
     112 ->120        -0.01557
     114 ->116        -0.04449
     114 ->119        -0.14921
     114 ->120         0.61757
     114 ->122         0.29664
     114 ->124         0.05997
     114 ->129        -0.01229
     114 ->131        -0.01399

 Excited State  11:      Singlet-A      4.2827 eV  289.50 nm  f=0.1600  <S**2>=0.000
      94 ->115         0.02024
      98 ->115         0.01243
      99 ->115        -0.01148
     102 ->115        -0.05001
     103 ->115         0.01544
     105 ->115        -0.01582
     107 ->116         0.01771
     109 ->118        -0.01816
     110 ->115         0.69570
     110 ->117         0.02016
     110 ->123         0.02441
     110 ->135         0.01324
     110 ->141         0.02459
     110 ->142        -0.01766
     111 ->119        -0.01574
     112 ->115         0.01055
     112 ->132        -0.01736
     113 ->115        -0.02109
     113 ->117         0.01119
     114 ->121         0.07212
     114 ->132         0.03248

 Excited State  12:      Singlet-B      4.3099 eV  287.67 nm  f=0.0003  <S**2>=0.000
     108 ->127         0.01593
     111 ->115        -0.02275
     112 ->124        -0.01223
     114 ->119        -0.01338
     114 ->122        -0.10841
     114 ->124         0.62681
     114 ->126         0.27265
     114 ->128         0.08481
     114 ->129         0.07879
     114 ->131         0.04764
     114 ->134         0.03863
     114 ->137         0.02301
     114 ->138         0.01774
     114 ->149        -0.01016

 Excited State  13:      Singlet-B      4.3862 eV  282.67 nm  f=0.1586  <S**2>=0.000
      91 ->115         0.01577
     104 ->115         0.01580
     105 ->116        -0.01111
     106 ->115         0.07652
     107 ->115        -0.15335
     109 ->115        -0.26822
     109 ->123        -0.01004
     110 ->116         0.05160
     110 ->118        -0.03579
     110 ->119         0.02634
     110 ->122         0.02461
     110 ->124         0.01109
     111 ->115         0.60339
     111 ->117        -0.02365
     111 ->141         0.01316
     113 ->116         0.10827
     113 ->118         0.11444
     113 ->119        -0.01273
     113 ->120         0.01420
     114 ->124         0.02188
     109 <-115         0.01367

 Excited State  14:      Singlet-A      4.4404 eV  279.22 nm  f=0.0034  <S**2>=0.000
     112 ->117        -0.01629
     112 ->123        -0.01441
     114 ->117        -0.09888
     114 ->123         0.69539
     114 ->125        -0.03831
     114 ->127        -0.05733
     114 ->136        -0.01279
     114 ->142        -0.01691

 Excited State  15:      Singlet-B      4.4528 eV  278.44 nm  f=0.1095  <S**2>=0.000
      91 ->115        -0.01663
     105 ->118         0.01729
     105 ->120        -0.01122
     106 ->115         0.07468
     106 ->141         0.01071
     107 ->115        -0.25171
     108 ->115         0.04019
     109 ->115         0.58565
     109 ->123        -0.01129
     109 ->135         0.01095
     109 ->141         0.01442
     110 ->116         0.06773
     110 ->119         0.01973
     110 ->122         0.02140
     111 ->115         0.22114
     111 ->117        -0.02715
     113 ->116        -0.07706
     113 ->118        -0.14472
     113 ->119         0.03042
     113 ->120        -0.01141
     109 <-115        -0.01329

 Excited State  16:      Singlet-B      4.6397 eV  267.22 nm  f=0.0014  <S**2>=0.000
     104 ->115        -0.01123
     105 ->116        -0.04212
     105 ->118        -0.04830
     105 ->120         0.04321
     106 ->115         0.56922
     106 ->123         0.02768
     107 ->115         0.36736
     109 ->115         0.09429
     109 ->117        -0.06613
     109 ->123         0.08472
     109 ->127         0.01434
     109 ->130         0.01222
     110 ->116        -0.02083
     110 ->118        -0.03590
     110 ->120         0.02405
     111 ->115         0.04610
     111 ->117         0.02326
     111 ->123        -0.04719
     113 ->116         0.04160
     113 ->118         0.05029
     113 ->119        -0.01045
     113 ->120         0.01706
     105 <-120         0.01068
     106 <-115        -0.01255
     109 <-123         0.01215

 Excited State  17:      Singlet-B      4.6558 eV  266.30 nm  f=0.0006  <S**2>=0.000
     112 ->124         0.01080
     114 ->120         0.01224
     114 ->122         0.06606
     114 ->124        -0.27325
     114 ->126         0.43450
     114 ->128         0.37050
     114 ->129         0.24351
     114 ->131         0.15477
     114 ->134        -0.02399
     114 ->137         0.06102
     114 ->138         0.06738
     114 ->147         0.01415
     114 ->149         0.02500

 Excited State  18:      Singlet-A      4.6861 eV  264.58 nm  f=0.0005  <S**2>=0.000
     108 ->124         0.01767
     108 ->126         0.01898
     108 ->128         0.01368
     108 ->129        -0.01521
     112 ->117        -0.01160
     114 ->117        -0.02528
     114 ->121         0.01021
     114 ->123         0.05723
     114 ->125         0.60033
     114 ->127         0.33776
     114 ->130        -0.13027
     114 ->136         0.02546
     114 ->141         0.01813
     114 ->142         0.01238
     114 ->146        -0.02087

 Excited State  19:      Singlet-B      4.7206 eV  262.64 nm  f=0.0000  <S**2>=0.000
     106 ->115         0.01905
     107 ->115        -0.01277
     108 ->115         0.70271
     108 ->117        -0.04437
     108 ->123        -0.01103
     109 ->115        -0.04331
     111 ->115        -0.03479

 Excited State  20:      Singlet-B      4.7967 eV  258.48 nm  f=0.0008  <S**2>=0.000
      93 ->115        -0.01053
     104 ->115        -0.01280
     105 ->116         0.01135
     106 ->115        -0.37007
     106 ->117         0.02507
     107 ->115         0.50339
     107 ->117        -0.04251
     108 ->115         0.04322
     109 ->115         0.17093
     109 ->123        -0.01314
     110 ->116        -0.05455
     110 ->118         0.02338
     110 ->119        -0.02132
     110 ->120        -0.01006
     110 ->122        -0.02098
     111 ->115         0.26096
     111 ->117        -0.01861
     113 ->116        -0.03198
     113 ->118         0.01736
     113 ->119        -0.01098
     114 ->126        -0.01017
     114 ->129         0.01376

 Excited State  21:      Singlet-B      4.8292 eV  256.74 nm  f=0.0094  <S**2>=0.000
     107 ->115        -0.01511
     108 ->115        -0.01049
     108 ->125        -0.01308
     108 ->127        -0.02660
     108 ->130         0.01069
     108 ->133         0.01153
     111 ->127         0.01104
     114 ->120         0.01365
     114 ->122        -0.01618
     114 ->124         0.05600
     114 ->126        -0.32281
     114 ->128        -0.07375
     114 ->129         0.55042
     114 ->131         0.26872
     114 ->137         0.05301
     114 ->138         0.05686
     114 ->144         0.01479
     114 ->147         0.01095
     114 ->149         0.03029
     114 ->159        -0.01040
     114 ->162        -0.02152
     114 ->163        -0.01706
     114 ->181        -0.01035

 Excited State  22:      Singlet-A      4.8801 eV  254.06 nm  f=0.0012  <S**2>=0.000
     108 ->126         0.01546
     108 ->128         0.01588
     112 ->121         0.01106
     114 ->123         0.03250
     114 ->125        -0.31249
     114 ->127         0.59040
     114 ->130         0.11360
     114 ->132         0.05471
     114 ->133        -0.16350
     114 ->135         0.08094
     114 ->136        -0.01931
     114 ->139         0.01503
     114 ->141        -0.01786
     114 ->142         0.01052
     114 ->146        -0.01315

 Excited State  23:      Singlet-B      4.9572 eV  250.11 nm  f=0.0007  <S**2>=0.000
     108 ->133        -0.01291
     112 ->124         0.01327
     112 ->126         0.01790
     112 ->128         0.01079
     114 ->122        -0.02563
     114 ->124         0.09885
     114 ->126        -0.34347
     114 ->128         0.56306
     114 ->129        -0.08656
     114 ->131        -0.10339
     114 ->134        -0.18216
     114 ->137         0.01894
     114 ->144        -0.01555
     114 ->149         0.02584

 Excited State  24:      Singlet-A      4.9886 eV  248.53 nm  f=0.0058  <S**2>=0.000
      99 ->115        -0.01035
     105 ->115        -0.08042
     105 ->117         0.03428
     105 ->123        -0.02571
     106 ->116         0.02867
     106 ->118         0.03835
     107 ->118         0.02272
     109 ->116         0.04825
     109 ->118         0.06086
     109 ->120        -0.01479
     110 ->123        -0.01756
     111 ->116        -0.01571
     111 ->118        -0.04007
     111 ->119         0.01018
     112 ->117         0.02543
     113 ->115        -0.01912
     113 ->117         0.68885
     113 ->130         0.01016
     113 ->141        -0.01090
     113 ->142         0.01008
     114 ->132        -0.05001

 Excited State  25:      Singlet-B      5.0457 eV  245.72 nm  f=0.0744  <S**2>=0.000
     103 ->122         0.01156
     104 ->115        -0.02184
     106 ->115        -0.05924
     106 ->117        -0.02509
     106 ->123        -0.01238
     107 ->117         0.05434
     108 ->121        -0.04044
     109 ->115         0.08952
     109 ->117        -0.04159
     110 ->116         0.05515
     110 ->120         0.01047
     110 ->122         0.01027
     111 ->115        -0.05716
     111 ->117        -0.05352
     111 ->121         0.01119
     111 ->123        -0.01594
     112 ->116        -0.35324
     112 ->118         0.13151
     112 ->119         0.01515
     112 ->120        -0.01909
     112 ->122        -0.01250
     113 ->116         0.56022
     113 ->118         0.01281
     113 ->119         0.06642
     113 ->122         0.05586
     114 ->116        -0.01702
     114 ->119        -0.03924
     114 ->120        -0.02092
     114 ->122         0.04144
     109 <-115        -0.01100
     113 <-118        -0.01014

 The electronic state is 1-A.
 Alpha  occ. eigenvalues --  -19.22558 -19.20424 -14.38298 -10.27219 -10.27218
 Alpha  occ. eigenvalues --  -10.25830 -10.25830 -10.24582 -10.24582 -10.24111
 Alpha  occ. eigenvalues --  -10.21212 -10.21212 -10.20620 -10.20619 -10.20500
 Alpha  occ. eigenvalues --  -10.20500 -10.20459 -10.20458 -10.20435 -10.20433
 Alpha  occ. eigenvalues --  -10.20056 -10.20056 -10.19521 -10.19521 -10.19513
 Alpha  occ. eigenvalues --  -10.19513 -10.19353 -10.19353 -10.19209 -10.19209
 Alpha  occ. eigenvalues --  -10.19000 -10.18749 -10.18749  -6.74200  -1.11599
 Alpha  occ. eigenvalues --   -1.09625  -0.98110  -0.87686  -0.87507  -0.86831
 Alpha  occ. eigenvalues --   -0.86169  -0.84307  -0.78531  -0.77689  -0.77469
 Alpha  occ. eigenvalues --   -0.76654  -0.76347  -0.76167  -0.75548  -0.74017
 Alpha  occ. eigenvalues --   -0.73983  -0.71078  -0.65551  -0.65388  -0.65384
 Alpha  occ. eigenvalues --   -0.64450  -0.62277  -0.60891  -0.60770  -0.60400
 Alpha  occ. eigenvalues --   -0.58847  -0.57883  -0.57087  -0.55590  -0.54391
 Alpha  occ. eigenvalues --   -0.53024  -0.51155  -0.50365  -0.49396  -0.49112
 Alpha  occ. eigenvalues --   -0.48194  -0.47745  -0.47504  -0.47465  -0.46885
 Alpha  occ. eigenvalues --   -0.46003  -0.45982  -0.45470  -0.44925  -0.44443
 Alpha  occ. eigenvalues --   -0.44065  -0.43934  -0.43930  -0.43203  -0.42570
 Alpha  occ. eigenvalues --   -0.41264  -0.40117  -0.39518  -0.38900  -0.38477
 Alpha  occ. eigenvalues --   -0.38305  -0.38282  -0.38041  -0.37909  -0.36682
 Alpha  occ. eigenvalues --   -0.36347  -0.36300  -0.36195  -0.35851  -0.35423
 Alpha  occ. eigenvalues --   -0.34083  -0.32627  -0.32503  -0.31586  -0.29013
 Alpha  occ. eigenvalues --   -0.27449  -0.27230  -0.26526  -0.26362  -0.26165
 Alpha  occ. eigenvalues --   -0.26114  -0.23672  -0.23557  -0.18282
 Alpha virt. eigenvalues --   -0.07884  -0.03210  -0.03103  -0.02685  -0.02080
 Alpha virt. eigenvalues --   -0.01699  -0.01107  -0.00783  -0.00576  -0.00451
 Alpha virt. eigenvalues --    0.00602   0.00714   0.01455   0.01704   0.01940

 Mulliken charges:
               1
     1  C   -0.179325
     2  C    0.317916
     3  C    0.253913
     4  C   -0.128292
     5  C   -0.164111
     6  C   -0.068129
     7  C   -0.128292
     8  C    0.253913
     9  C    0.317916
    10  H    0.185752
    11  C   -0.179325
    12  C   -0.068129
    13  C   -0.164111
    14  H    0.168087
    15  H    0.185752
    16  H    0.165867
    17  H    0.166638
    18  H    0.168087
    19  H    0.166638
    20  H    0.165867
    21  O   -0.338523
    22  N    0.314828
    23  C   -1.200885
    24  C    0.131606
    25  C    0.131606
    26  C   -0.139221
    27  H    0.116823
    28  C   -0.139221
    29  H    0.116823
    30  C   -0.375265
    31  H    0.134115
    32  H    0.134115
    33  B    0.032930
    34  C    0.616075
    35  C    0.616075
    36  C   -0.299101
    37  C   -0.006758
    38  C   -0.006758
    39  C   -0.299101
    40  C   -0.295208
    41  H    0.099127
    42  C   -0.241623
    43  O   -0.329262
    44  C   -0.241623
    45  H    0.099127
    46  C   -0.295208
    47  C   -0.219065
    48  H    0.105058
    49  H    0.116838
    50  C   -0.219065
    51  H    0.116838
    52  H    0.105058
    53  H    0.111107
    54  H    0.111107
 Sum of Mulliken charges =   0.00000

 Dipole moment (field-independent basis, Debye):
    X=              0.0000    Y=              0.0000    Z=             27.7087  Tot=             27.7087
 Quadrupole moment (field-independent basis, Debye-Ang):
   XX=           -175.6997   YY=           -199.4269   ZZ=           -183.4468
   XY=            -13.2765   XZ=              0.0000   YZ=              0.0000

 Normal termination of Gaussian 09 at Thu Sep  8 06:22:06 2016.
